    3
 RHF/cc-pVDZ Energy:    -75.966224961022
 O          0.0000000000        0.0000000000        0.0000000000
 H          0.0000000000        0.0000000000        1.0000000000
 H          0.0000000000        0.2756373558       -0.9512616959