    3
 RHF/cc-pVDZ Energy:    -76.021457963247
 O          1.0000000000        0.1000000000       -0.0688914996
 H          1.0000000000        0.8880107536        0.5467699757
 H          1.0000000000       -0.6880107536        0.5467799787
