    3
 RHF/cc-pVDZ Energy:    -76.021457963247
 O          0.0000000000        0.0000000000       -0.0688914996
 H          0.0000000000        0.7880107536        0.5467699757
 H          0.0000000000       -0.7880107536        0.5467799787
