   30
 RHF/MINAO//RHF/MINAO Energy:   -463.999917523780
 C         -0.7150800831       -1.2326248472       -0.0315456867
 C          0.7267365424       -1.2382529399       -0.0087410636
 C         -1.4401120995        0.0142108225        0.0149651842
 C          1.4531335765        0.0106851723        0.0055548863
 C         -0.7175605549        1.2651724035        0.0395244788
 C          0.7283714623        1.2619246145       -0.0204650867
 C         -1.4924938266       -2.5871840825       -0.0719378161
 C          1.4724977525       -2.6127134544       -0.0256317508
 C         -3.0040083781       -0.0263291446        0.0112542303
 C          3.0178822358        0.0009959870        0.0777710489
 C         -1.4936008173        2.6209718579        0.1593086616
 C          1.5053452823        2.6167996364       -0.1501936795
 H         -1.6811736386       -3.0017285613        1.0194529425
 H         -0.8844154570       -3.3977103502       -0.6609089653
 H         -2.5346741022       -2.4571101996       -0.5901409788
 H          1.0507513378       -3.3238679856        0.8130041367
 H          1.3169072667       -3.1575018962       -1.0604378426
 H          2.6214532723       -2.4804176970        0.1380137334
 H         -3.4069870661       -0.7076784464        0.8842912008
 H         -3.4023473079       -0.4796264274       -1.0015406988
 H         -3.4631780846        1.0413592987        0.1252509026
 H          3.5021641295       -0.3391302229       -0.9446708459
 H          3.4302603927        1.0593702765        0.3521337276
 H          3.3826966646       -0.7414666096        0.9115701423
 H         -1.9534218047        2.9615674165       -0.8748915024
 H         -0.7860886356        3.4672816710        0.5475305304
 H         -2.3724668469        2.5233150361        0.9300269057
 H          2.4821117047        2.4669418716       -0.7792760243
 H          1.8077999980        3.0637740664        0.9013785655
 H          0.8492970849        3.4085727338       -0.7106493359
