    2
 RPBE0/cc-pVDZ//RPBE0/cc-pVDZ Energy:   -109.410437477836
 N          -0.1000000000        0.0000000000       -0.6507908847
 N          0.1000000000        0.0000000000        0.4507908847
