    2
 RPBE0/cc-pVDZ//RPBE0/cc-pVDZ Energy:   -109.410437477836
 N          0.0000000000        0.0000000000       -0.5507908847
 N          0.0000000000        0.0000000000        0.5507908847
