    4
 RPBE/cc-pVTZ//RPBE/cc-pVTZ Energy:  -1364.915446341832
 P          1.1091458718        0.0000000000        0.7842845673
 P         -1.1091458718        0.0000000000        0.7842845673
 P          0.0000000000       -1.1091458718       -0.7842845673
 P          0.0000000000        1.1091458718       -0.7842845673
